LAMMPS data file from CP2K

684 atoms
6 atom types

0.0 19.8 xlo xhi
0.0 19.8 ylo yhi
0.0 19.8 zlo zhi

Masses

1 12.0110  # C
2 14.0070  # N
3 15.9990  # O
4 2.0160  # H
5 12.0110
6 15.9990


Atoms

1 5 -0.000013 12.55129640 8.21887278 11.92139710
2 2 -0.000069 11.17166380 7.86437458 12.08500330
3 5 0.000053 10.14354670 8.73951093 11.93246030
4 5 -0.000043 8.77466282 8.22283060 12.10782280
5 6 -0.000065 10.30992070 9.98306221 11.67410570
6 4 0.000018 8.17671364 8.83177028 12.74071990
7 4 0.000018 8.42629388 8.21930000 10.99793390
8 4 0.000018 8.68593962 7.15939324 12.43389220
9 4 0.000039 10.85983170 6.84016333 11.94311550
10 4 0.000014 13.06798250 7.48467851 11.32512710
11 4 0.000014 12.59107820 9.20493688 11.43601430
12 4 0.000014 13.13002210 8.22003680 12.95138430
13 1 0.000052 9.43603120 12.82560690 17.63753110
14 3 -0.000104 10.36439420 13.77698710 17.04726180
15 4 -0.000004 10.00248540 11.89863680 17.77164070
16 4 -0.000004 8.66656325 12.65485310 16.88750730
17 4 0.000063 9.03135852 13.07084080 18.63613690
18 4 -0.000004 9.91168370 14.64231800 17.03699910
19 1 0.000052 2.19640523 19.58077310 7.80789230
20 3 -0.000104 2.83583591 18.89837130 8.95906181
21 4 -0.000004 1.22469558 0.11547549 8.08377604
22 4 -0.000004 2.20996842 18.97582660 6.86852169
23 4 0.000063 2.86742715 0.59702899 7.58683882
24 4 -0.000004 3.67043169 18.42884970 8.59973736
25 1 0.000052 0.12728826 7.79194089 13.20854520
26 3 -0.000104 0.37886900 7.38598636 11.88164880
27 4 -0.000004 19.29830610 8.71147844 13.30278200
28 4 -0.000004 1.13242880 8.06959531 13.70398620
29 4 0.000063 19.49836460 6.96207561 13.83441010
30 4 -0.000004 19.41866980 6.71799470 11.51932400
31 1 0.000052 14.76124110 17.04127270 19.63098730
32 3 -0.000104 14.82840450 17.82051720 18.43191210
33 4 -0.000004 15.41025210 17.52309440 0.66180306
34 4 -0.000004 15.14644490 16.02178140 19.41436760
35 4 0.000063 13.78069620 17.01068400 0.16222329
36 4 -0.000004 14.67958150 18.73661620 18.82435160
37 1 0.000052 17.81180890 0.82508473 1.19527683
38 3 -0.000104 16.76852370 19.75507160 0.92296127
39 4 -0.000004 17.61813190 1.80846580 0.72807628
40 4 -0.000004 18.75978560 0.45211284 0.66677813
41 4 0.000063 18.06614860 0.88281586 2.30299887
42 4 -0.000004 16.05785410 0.32376517 0.39956994
43 1 0.000052 5.21385060 0.09635274 11.17452120
44 3 -0.000104 3.85346995 0.50098321 10.98906400
45 4 -0.000004 5.29930896 19.48913680 12.20684690
46 4 -0.000004 5.80989989 0.97383450 11.06834810
47 4 0.000063 5.47251885 19.20419380 10.28314790
48 4 -0.000004 3.39055420 0.01347350 10.22437750
49 1 0.000052 8.16165684 4.18814475 2.57823956
50 3 -0.000104 6.83915435 3.61996932 2.57356483
51 4 -0.000004 8.56390845 3.91558628 3.57938779
52 4 -0.000004 8.09397795 5.25324214 2.37167615
53 4 0.000063 8.86383970 3.71340355 1.91614786
54 4 -0.000004 6.45089544 3.62148959 1.64384495
55 1 0.000052 3.95854884 13.16226370 7.82330353
56 3 -0.000104 4.08477483 13.30190940 6.33546848
57 4 -0.000004 4.59071332 13.75744410 8.44531128
58 4 -0.000004 4.10392245 12.06772650 8.07614014
59 4 0.000063 2.94845676 13.30629290 8.21335403
60 4 -0.000004 3.65965055 14.24429520 6.20256003
61 1 0.000052 4.82726896 10.10209690 5.11943447
62 3 -0.000104 5.46609964 11.15776600 4.43836462
63 4 -0.000004 5.21293668 9.10471651 4.75738086
64 4 -0.000004 3.79567880 10.03760200 4.89133757
65 4 0.000063 5.05470451 10.18966010 6.19474619
66 4 -0.000004 6.07245084 11.60217120 5.07445152
67 1 0.000052 16.46589510 11.13153800 4.70940736
68 3 -0.000104 17.53905020 11.05906830 3.81614846
69 4 -0.000004 15.84435210 12.07057870 4.73549813
70 4 -0.000004 16.80893970 10.97241610 5.71560243
71 4 0.000063 15.69066320 10.34853490 4.45978661
72 4 -0.000004 17.36282930 11.68810180 3.08685113
73 1 0.000052 10.66530590 13.57327490 7.70204812
74 3 -0.000104 10.94919280 14.55598570 6.66380800
75 4 -0.000004 9.62863909 13.36400300 7.78373681
76 4 -0.000004 10.93741250 14.02132200 8.66761550
77 4 0.000063 11.09316350 12.55306750 7.65967227
78 4 -0.000004 11.94676920 14.63901320 6.53334380
79 1 0.000052 13.65227630 17.44481410 8.45015261
80 3 -0.000104 14.52596310 16.34375620 7.93278238
81 4 -0.000004 13.67420710 17.65099310 9.52482896
82 4 -0.000004 12.62716840 17.31350360 8.06869533
83 4 0.000063 14.04923780 18.33267500 7.92213340
84 4 -0.000004 14.88086410 15.77951820 8.67191455
85 1 0.000052 14.71209760 3.00066076 3.28493906
86 3 -0.000104 14.91903230 3.81076171 4.43350299
87 4 -0.000004 15.19829750 3.50711019 2.43050939
88 4 -0.000004 13.67604180 2.97656229 3.00150472
89 4 0.000063 15.01116520 1.97098962 3.33321669
90 4 -0.000004 14.31414700 4.57136574 4.35038902
91 1 0.000052 9.31666048 2.13429806 6.21651929
92 3 -0.000104 8.36302880 3.04835260 5.74798682
93 4 -0.000004 9.30595413 2.06906502 7.31344243
94 4 -0.000004 10.26838140 2.58971921 6.04535813
95 4 0.000063 9.19807230 1.15065599 5.65105288
96 4 -0.000004 7.49120608 2.60194638 5.68512261
97 1 0.000052 18.94010180 3.86024404 8.40008913
98 3 -0.000104 17.74196290 3.97123918 7.63936078
99 4 -0.000004 18.82834830 2.94170876 8.97976468
100 4 -0.000004 19.10028820 4.81996293 8.92850297
101 4 0.000063 0.01751335 3.60271260 7.79178762
102 4 -0.000004 17.81897650 3.79740975 6.67005601
103 1 0.000052 6.95402122 6.07093008 15.77692690
104 3 -0.000104 6.40143264 6.14142698 14.45981640
105 4 -0.000004 7.17674868 5.02709695 15.93857450
106 4 -0.000004 6.30480691 6.62309651 16.47503090
107 4 0.000063 7.94379385 6.40370723 15.84437880
108 4 -0.000004 5.73608453 6.81639385 14.48564470
109 1 0.000052 5.89042325 6.68057948 7.49076779
110 3 -0.000104 5.51786772 5.41471323 6.76624552
111 4 -0.000004 5.47408014 7.55296001 6.98719276
112 4 -0.000004 6.94388101 6.74769689 7.69484171
113 4 0.000063 5.44162234 6.50061062 8.47408816
114 4 -0.000004 5.71769799 5.51363864 5.83543897
115 1 0.000052 8.40976471 10.12708790 5.68574684
116 3 -0.000104 8.07042806 11.53298040 5.91783557
117 4 -0.000004 9.46080039 9.98438154 6.06296961
118 4 -0.000004 8.25476912 9.74447736 4.64991782
119 4 0.000063 7.79892182 9.65991955 6.54276719
120 4 -0.000004 8.49104031 11.94289100 5.15195618
121 1 0.000052 4.92593474 14.21433320 14.81613160
122 3 -0.000104 4.70224887 15.38678280 15.59585590
123 4 -0.000004 5.40828025 13.37152540 15.38414770
124 4 -0.000004 5.50610795 14.62109280 13.88161670
125 4 0.000063 3.95041927 13.88393980 14.52977050
126 4 -0.000004 5.51142499 15.53549110 16.16668160
127 1 0.000052 6.64034389 18.61988570 3.78137430
128 3 -0.000104 6.51722179 19.05699860 5.11749996
129 4 -0.000004 6.47326428 19.46154100 3.03016452
130 4 -0.000004 5.95216706 17.81593850 3.48169347
131 4 0.000063 7.74984964 18.40043340 3.66384705
132 4 -0.000004 6.22328233 0.19173653 5.12448318
133 1 0.000052 6.31209151 16.90657030 7.71992658
134 3 -0.000104 4.87219157 16.80414380 7.90327135
135 4 -0.000004 6.76368118 17.02992130 8.68047094
136 4 -0.000004 6.37522067 17.75700980 7.01263098
137 4 0.000063 6.81642591 16.12163480 7.22296373
138 4 -0.000004 4.46959045 16.27041230 7.17792158
139 1 0.000052 6.13238379 9.57008247 1.40339333
140 3 -0.000104 7.16624722 10.28068580 2.15292179
141 4 -0.000004 6.28285988 9.97698808 0.38797461
142 4 -0.000004 5.14727191 9.72688842 1.78086433
143 4 0.000063 6.20258550 8.43566999 1.38873930
144 4 -0.000004 6.78802887 10.50314560 3.00872469
145 1 0.000052 18.69145360 17.10096810 10.67022740
146 3 -0.000104 17.55228660 16.36554140 11.12084080
147 4 -0.000004 19.60141620 16.39752160 10.57548280
148 4 -0.000004 18.93855410 17.89868740 11.37611230
149 4 0.000063 18.48346840 17.47826960 9.65318220
150 4 -0.000004 17.56648420 15.99924690 12.03777610
151 1 0.000052 13.39739440 10.95022150 14.37806810
152 3 -0.000104 13.94025460 10.71055950 15.72321530
153 4 -0.000004 12.48839690 10.33453500 14.27522500
154 4 -0.000004 14.19780020 10.71989900 13.65745370
155 4 0.000063 13.20622020 12.05147450 14.25391860
156 4 -0.000004 13.72608030 9.75650683 16.03357620
157 1 0.000052 8.76355691 6.57800163 5.38522085
158 3 -0.000104 9.45480848 5.33611310 5.52207803
159 4 -0.000004 8.23557729 6.80043582 6.24947943
160 4 -0.000004 8.02930003 6.53688868 4.56073079
161 4 0.000063 9.55013612 7.29365019 5.19236318
162 4 -0.000004 8.79843451 4.57849618 5.61804741
163 1 0.000052 10.27402390 4.18573815 17.32332060
164 3 -0.000104 9.72287592 5.47724199 17.36520370
165 4 -0.000004 11.23972460 4.25794785 17.96924710
166 4 -0.000004 10.56021060 3.92376509 16.25918010
167 4 0.000063 9.55978303 3.38518263 17.58880610
168 4 -0.000004 9.26252546 5.60665381 18.26619460
169 1 0.000052 1.02701650 14.60205700 14.68244000
170 3 -0.000104 0.11678753 15.65292120 15.01267720
171 4 -0.000004 1.63160769 14.85302400 13.77048450
172 4 -0.000004 0.55120744 13.65582920 14.56023380
173 4 0.000063 1.75407294 14.43982580 15.50894800
174 4 -0.000004 0.59054193 16.52561560 14.93765580
175 1 0.000052 15.27795420 6.55259843 8.43770828
176 3 -0.000104 16.46745820 6.03133849 8.95872888
177 4 -0.000004 15.12586910 6.48886780 7.32972974
178 4 -0.000004 15.26883870 7.62227699 8.62442834
179 4 0.000063 14.37244400 6.11577459 8.83480937
180 4 -0.000004 16.71775180 5.20483890 8.42866317
181 1 0.000052 9.09485006 7.42471773 0.54486404
182 3 -0.000104 8.70700125 6.13816950 19.74771710
183 4 -0.000004 9.95987950 7.42677063 1.15792315
184 4 -0.000004 8.39446458 7.96519596 1.23473385
185 4 0.000063 9.22954549 8.20290820 19.61141260
186 4 -0.000004 7.68227263 6.12636835 0.02015364
187 1 0.000052 13.66877700 12.73906360 18.05255300
188 3 -0.000104 14.73358760 12.74691370 16.97928540
189 4 -0.000004 14.17355190 12.98917780 18.99793410
190 4 -0.000004 13.21329620 11.80309100 18.06108360
191 4 0.000063 12.88618350 13.56498830 17.91930950
192 4 -0.000004 14.37712200 11.96767430 16.44805590
193 1 0.000052 12.05960390 6.76939447 7.27775206
194 3 -0.000104 11.25694880 5.65812965 7.67039599
195 4 -0.000004 12.47658790 6.55855505 6.29681100
196 4 -0.000004 12.86469410 6.87888114 8.03442371
197 4 0.000063 11.59999880 7.73864806 7.21986751
198 4 -0.000004 10.66147290 5.50155846 6.88932789
199 1 0.000052 9.85444387 18.18902440 6.41980575
200 3 -0.000104 10.43836530 17.22361750 7.31800751
201 4 -0.000004 9.63637990 19.10536640 6.96836402
202 4 -0.000004 8.87716692 17.81906870 5.88146980
203 4 0.000063 10.71056970 18.43193910 5.71639536
204 4 -0.000004 10.43400240 16.36829420 6.84606060
205 1 0.000052 2.79472954 17.90892090 14.10825990
206 3 -0.000104 1.49475458 18.15495950 14.71537010
207 4 -0.000004 2.67080435 16.96790100 13.55071950
208 4 -0.000004 3.64765589 17.69632130 14.85866110
209 4 0.000063 3.03497023 18.58196940 13.25514010
210 4 -0.000004 1.23928087 19.11995300 14.58439710
211 1 0.000052 18.54711490 3.22799829 3.99787615
212 3 -0.000104 17.78968890 4.06305728 4.87321693
213 4 -0.000004 18.50635680 2.18393105 4.27327304
214 4 -0.000004 19.58563120 3.46330241 4.08022205
215 4 0.000063 18.29145000 3.41739904 2.97007568
216 4 -0.000004 16.81238840 3.94119762 4.81738361
217 1 0.000052 16.69603270 4.26709982 15.98563650
218 3 -0.000104 17.06533170 3.03681600 15.41472120
219 4 -0.000004 16.31652630 4.84455844 15.15668670
220 4 -0.000004 17.53131350 4.71620712 16.46521860
221 4 0.000063 15.77904680 4.11278258 16.65882220
222 4 -0.000004 17.62010930 2.42353509 15.96159360
223 1 0.000052 0.42968029 13.92867780 2.54803250
224 3 -0.000104 1.82838179 13.65342530 2.84959909
225 4 -0.000004 19.76399630 13.42544410 1.63562595
226 4 -0.000004 0.29227476 15.03424560 2.50619157
227 4 0.000063 19.55807040 13.54975620 3.42209718
228 4 -0.000004 1.98088947 13.07651010 3.65186043
229 1 0.000052 8.80740663 14.45544260 3.95818654
230 3 -0.000104 9.64110532 13.44449610 4.50418602
231 4 -0.000004 8.00403589 14.65884420 4.64798113
232 4 -0.000004 8.40003095 13.95475100 3.10663743
233 4 0.000063 9.44309077 15.35122460 3.75413712
234 4 -0.000004 10.17532790 13.87166640 5.23603549
235 1 0.000052 10.38660180 10.82727950 2.20171610
236 3 -0.000104 10.59165640 11.15735100 3.57648980
237 4 -0.000004 11.20695620 10.14526740 2.00063751
238 4 -0.000004 10.55032920 11.80821070 1.77875666
239 4 0.000063 9.48065280 10.29875360 1.94066278
240 4 -0.000004 10.17511480 12.06195630 3.87226209
241 1 0.000052 1.39419083 11.11561170 5.67504626
242 3 -0.000104 2.30765465 11.93466090 4.91770579
243 4 -0.000004 1.28662044 11.65743280 6.68732166
244 4 -0.000004 1.74151398 10.10622240 5.80619087
245 4 0.000063 0.42055542 11.23492870 5.19716766
246 4 -0.000004 3.02610655 12.36429710 5.44149659
247 1 0.000052 6.74858772 2.38461400 14.78018540
248 3 -0.000104 7.51857527 2.00907077 13.61602540
249 4 -0.000004 6.92072780 1.59315503 15.44966230
250 4 -0.000004 5.66351962 2.43014260 14.57947200
251 4 0.000063 7.05514977 3.33837667 15.14496730
252 4 -0.000004 7.47281970 2.68108092 12.92658440
253 1 0.000052 3.03039459 14.80886400 10.73247170
254 3 -0.000104 4.36345842 15.04435230 10.23724630
255 4 -0.000004 2.29551250 15.57175080 10.42979920
256 4 -0.000004 3.10008923 14.82284210 11.86821450
257 4 0.000063 2.61764303 13.84209350 10.39861960
258 4 -0.000004 4.43361506 15.79115990 9.64334031
259 1 0.000052 17.28675830 7.39585870 4.61520487
260 3 -0.000104 17.87949990 6.42880206 3.68076346
261 4 -0.000004 17.67701550 8.42808279 4.38588291
262 4 -0.000004 17.47472870 7.20497244 5.62859953
263 4 0.000063 16.12476740 7.37027043 4.59331687
264 4 -0.000004 17.92034970 5.56884382 4.17294351
265 1 0.000052 13.16338800 10.83404700 6.26467515
266 3 -0.000104 13.14953880 10.43020100 4.92300765
267 4 -0.000004 13.66965190 11.77083010 6.34654243
268 4 -0.000004 13.72529240 10.13323810 6.89179604
269 4 0.000063 12.15752440 10.85759460 6.81061564
270 4 -0.000004 12.48600270 10.92895940 4.43994838
271 1 0.000052 2.32622845 2.33634405 1.10580664
272 3 -0.000104 3.33476997 3.16692127 1.49166821
273 4 -0.000004 2.48958575 1.27261377 1.37077993
274 4 -0.000004 2.15732736 2.41681699 0.03805701
275 4 0.000063 1.38803796 2.62375593 1.57923334
276 4 -0.000004 3.52340102 3.19099410 2.47748188
277 1 0.000052 12.66942240 2.29552621 7.40266336
278 3 -0.000104 13.21464590 3.52986775 7.62488441
279 4 -0.000004 12.52594990 2.04426533 6.30553997
280 4 -0.000004 11.68210770 2.07335954 7.87669020
281 4 0.000063 13.33959800 1.50904527 7.76261292
282 4 -0.000004 12.55974260 4.25739685 7.57374264
283 1 0.000052 6.20766548 1.98387820 19.64521840
284 3 -0.000104 5.65884125 3.27346150 0.22558878
285 4 -0.000004 6.98751709 1.63605345 0.53855475
286 4 -0.000004 6.60773530 2.22918776 18.67614310
287 4 0.000063 5.41832461 1.23069954 19.51530600
288 4 -0.000004 4.73930405 3.14363109 0.67817858
289 1 0.000052 14.91036550 14.26108260 10.86276430
290 3 -0.000104 15.70138320 14.64049270 9.76627895
291 4 -0.000004 15.51908600 13.66235990 11.60857010
292 4 -0.000004 14.22082240 13.47195790 10.46431810
293 4 0.000063 14.24064950 14.93776600 11.44124960
294 4 -0.000004 16.35996240 15.25641320 10.14271280
295 1 0.000052 18.47725620 16.85135160 0.53394382
296 3 -0.000104 17.74902300 17.75735280 19.47550840
297 4 -0.000004 17.75694470 16.10991020 0.96841041
298 4 -0.000004 18.99763140 17.46919600 1.32508265
299 4 0.000063 19.21841850 16.31887290 19.73715880
300 4 -0.000004 17.28378710 18.40531610 0.36370589
301 1 0.000052 18.52811920 11.92149570 13.30441250
302 3 -0.000104 18.53993160 13.05291500 12.48226430
303 4 -0.000004 19.25892690 11.27764940 12.77174170
304 4 -0.000004 17.55514690 11.35974890 13.24723040
305 4 0.000063 18.82759180 12.13648590 14.40257210
306 4 -0.000004 17.91983060 13.72769910 12.86568330
307 1 0.000052 14.30872060 2.41265627 14.03415070
308 3 -0.000104 15.54292970 2.35734812 13.40830900
309 4 -0.000004 13.70468670 3.36013671 13.92171970
310 4 -0.000004 14.33973160 2.10350938 15.12683120
311 4 0.000063 13.61253600 1.76049975 13.49798620
312 4 -0.000004 16.19753000 2.57923237 14.16619960
313 1 0.000052 17.23915390 11.30455120 8.27363859
314 3 -0.000104 16.02159730 11.94520130 8.10675115
315 4 -0.000004 17.94938980 11.87186970 8.79903994
316 4 -0.000004 17.55997600 11.23026370 7.25165158
317 4 0.000063 17.12985180 10.22810690 8.67986687
318 4 -0.000004 15.84436100 12.51654730 8.85947936
319 1 0.000052 0.98620313 7.30422477 4.78249845
320 3 -0.000104 2.21741513 7.64340414 5.39227815
321 4 -0.000004 0.73794803 8.04263137 3.96081686
322 4 -0.000004 0.08176165 7.31112992 5.52877523
323 4 0.000063 1.08519722 6.34422972 4.28524616
324 4 -0.000004 2.36828840 6.89118119 6.01551164
325 1 0.000052 18.11857910 15.69129150 6.87572317
326 3 -0.000104 17.29165340 16.90070520 6.85264093
327 4 -0.000004 18.99777900 15.87027740 7.46714965
328 4 -0.000004 18.30653270 15.42061880 5.79119600
329 4 0.000063 17.65450410 14.83487850 7.31892704
330 4 -0.000004 16.43264520 16.67266750 7.24655365
331 1 0.000052 1.22678729 19.14900590 3.67659148
332 3 -0.000104 1.21368352 17.87743900 3.00625032
333 4 -0.000004 1.50444159 0.21184979 3.01050007
334 4 -0.000004 1.94651780 19.11818410 4.51046407
335 4 0.000063 0.22650687 19.29733920 4.11693779
336 4 -0.000004 1.94094090 17.25000170 3.24380796
337 1 0.000052 2.55199062 3.19199942 4.98445946
338 3 -0.000104 3.79470702 3.15151877 4.19356050
339 4 -0.000004 1.86233389 2.47549441 4.44241127
340 4 -0.000004 2.13120714 4.20333899 4.93371246
341 4 0.000063 2.72096683 2.84240575 5.98661226
342 4 -0.000004 4.22163034 4.09000551 4.21950161
343 1 0.000052 4.32726702 16.18363880 2.31076759
344 3 -0.000104 3.31319145 15.69392790 3.19711748
345 4 -0.000004 4.29081996 15.72990260 1.32888619
346 4 -0.000004 5.28772306 15.96580820 2.71462283
347 4 0.000063 4.08545519 17.23674910 2.16224361
348 4 -0.000004 2.71656787 14.88654350 2.91291716
349 1 0.000052 5.28181719 9.78756734 10.12094600
350 3 -0.000104 5.71843799 9.96665401 8.74972336
351 4 -0.000004 4.27403979 9.30953111 10.17185110
352 4 -0.000004 5.35330584 10.74740910 10.66911740
353 4 0.000063 5.99969489 9.12484046 10.76811390
354 4 -0.000004 6.41837795 10.69915460 8.76534694
355 1 0.000052 9.99499301 8.61184663 15.52063080
356 3 -0.000104 10.93161090 7.49904394 15.83897680
357 4 -0.000004 9.07003954 8.27133102 15.02102380
358 4 -0.000004 10.48673370 9.19998715 14.67175960
359 4 0.000063 9.75444328 9.23981565 16.37823380
360 4 -0.000004 10.41573790 6.71905473 16.01628480
361 1 0.000052 12.29602410 7.01721951 19.09353840
362 3 -0.000104 13.66360720 6.65729999 18.90932810
363 4 -0.000004 11.82867160 6.26586949 19.75810130
364 4 -0.000004 11.74410030 7.10934798 18.20574800
365 4 0.000063 12.25770060 7.99585322 19.56637710
366 4 -0.000004 14.10370240 7.36378474 18.44004270
367 1 0.000052 0.03525584 2.55390887 17.49170130
368 3 -0.000104 19.09802580 1.77414013 16.51162280
369 4 -0.000004 19.46761760 2.38502072 18.52759100
370 4 -0.000004 19.68622460 3.65972680 17.33589550
371 4 0.000063 1.15141105 2.41324276 17.41705260
372 4 -0.000004 18.95614870 0.80782702 16.87943540
373 1 0.000052 10.15759610 0.03565803 17.43382600
374 3 -0.000104 10.84218920 18.63471350 17.91138210
375 4 -0.000004 9.04698981 0.04990292 17.69194830
376 4 -0.000004 10.27666140 0.20247014 16.35958130
377 4 0.000063 10.63702570 0.88258541 17.97419130
378 4 -0.000004 11.69728870 18.52414440 17.33309010
379 1 0.000052 10.83081310 17.02569440 11.16372940
380 3 -0.000104 9.81826329 17.31597860 10.21606760
381 4 -0.000004 10.38955080 16.42577060 12.02025210
382 4 -0.000004 11.21019460 17.95070730 11.59929090
383 4 0.000063 11.66373840 16.30979240 10.73518880
384 4 -0.000004 10.08758710 17.18687000 9.28206921
385 1 0.000052 5.08664669 6.70651295 19.17818560
386 3 -0.000104 6.07051938 5.94195886 19.78555270
387 4 -0.000004 4.09719188 6.22361580 19.17300850
388 4 -0.000004 5.30363119 7.01095989 18.12372010
389 4 0.000063 5.11868449 7.67221270 19.71895410
390 4 -0.000004 5.89757182 5.00601566 19.59389550
391 1 0.000052 1.91060973 18.30069010 18.40788090
392 3 -0.000104 1.98969180 19.22727650 17.33757300
393 4 -0.000004 2.09379074 18.90489600 19.38327390
394 4 -0.000004 2.71336063 17.51387630 18.41334870
395 4 0.000063 0.81989572 17.94039490 18.52336690
396 4 -0.000004 2.03470769 18.64461150 16.48915690
397 1 0.000052 4.80343152 6.56724719 3.50326108
398 3 -0.000104 5.16114859 5.29591157 4.05780820
399 4 -0.000004 5.68370149 7.24698214 3.75590267
400 4 -0.000004 3.88777836 6.86990333 3.95335384
401 4 0.000063 4.73365898 6.53713917 2.41199510
402 4 -0.000004 5.57232764 4.71097843 3.34896507
403 1 0.000052 13.52351460 18.57856080 15.42528810
404 3 -0.000104 12.93264740 17.89510310 16.55918740
405 4 -0.000004 13.12097390 19.56729780 15.40423420
406 4 -0.000004 13.29802590 18.00430340 14.50425280
407 4 0.000063 14.60507190 18.76615020 15.38891250
408 4 -0.000004 13.64168120 17.78389990 17.19682970
409 1 0.000052 3.94006863 8.33789971 12.94027640
410 3 -0.000104 3.68709582 8.04083466 14.31226190
411 4 -0.000004 4.67819236 9.25120010 12.89919630
412 4 -0.000004 3.00233735 8.64627255 12.43037030
413 4 0.000063 4.45533354 7.55038951 12.37938110
414 4 -0.000004 4.21793195 8.63769737 15.01274480
415 1 0.000052 15.39837690 19.17789740 11.85468140
416 3 -0.000104 15.76467330 18.19598950 12.83897490
417 4 -0.000004 16.19572120 19.37364360 11.17804910
418 4 -0.000004 15.07724970 0.32047071 12.40566860
419 4 0.000063 14.59733420 18.95205870 11.18856600
420 4 -0.000004 16.25324970 17.54054110 12.26146300
421 1 0.000052 6.15611196 9.22617804 16.83050740
422 3 -0.000104 4.80210328 9.02489433 16.37726230
423 4 -0.000004 6.22993554 10.27637440 17.21038770
424 4 -0.000004 6.92896478 9.21877623 15.98840960
425 4 0.000063 6.46434052 8.44870289 17.54747270
426 4 -0.000004 4.16481611 9.52259335 16.95612420
427 1 0.000052 3.61966244 2.54260853 17.34649510
428 3 -0.000104 3.49780854 1.43165245 18.19742850
429 4 -0.000004 2.72713891 3.10546477 17.25717650
430 4 -0.000004 4.05398225 2.22103898 16.34755390
431 4 0.000063 4.42508972 3.24180859 17.76296020
432 4 -0.000004 2.84633732 0.74245154 17.82625360
433 1 0.000052 1.76806814 15.67053010 6.32414372
434 3 -0.000104 3.16333805 15.80831490 5.98553401
435 4 -0.000004 1.54477967 15.30225220 7.30443246
436 4 -0.000004 1.28951075 14.96857590 5.61257237
437 4 0.000063 1.31073276 16.66527740 6.18123817
438 4 -0.000004 3.36745396 15.94157160 5.02558270
439 1 0.000052 15.49906120 13.36799980 1.91835806
440 3 -0.000104 16.76356400 12.71747130 1.82036313
441 4 -0.000004 14.76355750 13.18269560 1.13683907
442 4 -0.000004 15.75686600 14.43048780 1.92568725
443 4 0.000063 14.99335100 13.13664300 2.85534928
444 4 -0.000004 16.75038290 11.97444190 1.14320095
445 1 0.000052 14.75188520 1.23771455 17.93365810
446 3 -0.000104 14.64613630 0.59578896 19.22655770
447 4 -0.000004 15.08646780 2.28450410 17.96363080
448 4 -0.000004 13.78617450 1.14214461 17.45391290
449 4 0.000063 15.40866140 0.67905118 17.20726280
450 4 -0.000004 13.85747830 0.89282706 0.04884842
451 1 0.000052 1.14996613 6.79068016 16.58318010
452 3 -0.000104 0.87468963 5.77935790 17.54804500
453 4 -0.000004 0.23499687 7.25165101 16.16557360
454 4 -0.000004 1.75600489 6.32916633 15.81790640
455 4 0.000063 1.69716075 7.65674267 17.02974790
456 4 -0.000004 1.29678447 6.05091604 18.41465420
457 1 0.000052 6.97814294 13.76406270 0.27933688
458 3 -0.000104 6.44955610 13.87998110 18.77027070
459 4 -0.000004 6.74756613 12.74042950 0.51539410
460 4 -0.000004 6.46573233 14.49007480 0.96586524
461 4 0.000063 8.09311356 13.68390240 0.33483264
462 4 -0.000004 6.54748052 14.80124900 18.49729310
463 1 0.000052 11.01770410 4.91801000 13.47852780
464 3 -0.000104 10.66976780 5.10140549 12.10810730
465 4 -0.000004 10.22548620 5.04509098 14.18083980
466 4 -0.000004 11.83577830 5.62245500 13.80882350
467 4 0.000063 11.43063880 3.84250944 13.55233980
468 4 -0.000004 11.49754220 5.01286719 11.55304980
469 1 0.000052 12.13399430 2.55185797 0.32085686
470 3 -0.000104 12.91080540 1.50084871 1.14790799
471 4 -0.000004 12.55697850 3.60783838 0.29462115
472 4 -0.000004 11.17173440 2.57729812 0.82252282
473 4 0.000063 12.08824790 2.14154830 19.10478340
474 4 -0.000004 12.33115990 0.70205046 1.18678580
475 1 0.000052 0.24321517 0.97305345 13.14018390
476 3 -0.000104 0.97094176 0.95508935 14.40051370
477 4 -0.000004 19.37836670 1.86246261 12.99355880
478 4 -0.000004 19.43953290 0.07385068 13.07946710
479 4 0.000063 0.99005797 0.83348254 12.36905880
480 4 -0.000004 0.40723555 1.14269885 15.19723510
481 1 0.000052 1.96073858 11.36517110 11.64933890
482 3 -0.000104 2.20367860 11.37010790 10.20631090
483 4 -0.000004 2.77433052 11.93972900 12.12803490
484 4 -0.000004 1.81269226 10.36756120 12.12755430
485 4 0.000063 1.02341180 11.82703390 11.85876730
486 4 -0.000004 1.92874444 10.44156630 9.98560732
487 1 0.000052 17.88717320 18.36553570 16.11395020
488 3 -0.000104 18.45808320 19.18334340 17.22104860
489 4 -0.000004 18.65023740 18.11926920 15.39515150
490 4 -0.000004 17.13437240 19.01498540 15.67148680
491 4 0.000063 17.50273890 17.47805010 16.53328020
492 4 -0.000004 18.10526650 18.72396150 18.03098770
493 1 0.000052 12.72177290 14.34628070 14.04809750
494 3 -0.000104 12.08764950 15.59338650 14.35215020
495 4 -0.000004 13.81424050 14.30030940 14.12534210
496 4 -0.000004 12.51503090 14.05558270 12.98154940
497 4 0.000063 12.23625420 13.53326630 14.69280260
498 4 -0.000004 12.73035510 16.09409510 14.86411250
499 1 0.000052 17.09709170 18.50516000 3.88297054
500 3 -0.000104 17.79811980 19.61516870 4.44921132
501 4 -0.000004 16.14802120 18.74840000 3.40856413
502 4 -0.000004 16.96329690 17.61427450 4.61180396
503 4 0.000063 17.63448050 18.11657620 2.98824743
504 4 -0.000004 17.74655040 19.61123180 5.43402629
505 1 0.000052 1.76585556 3.53465136 11.41797630
506 3 -0.000104 2.14821306 2.57603929 10.42106680
507 4 -0.000004 0.74361500 3.28474384 11.79681220
508 4 -0.000004 1.81550702 4.51926843 11.02390570
509 4 0.000063 2.43329909 3.54103730 12.28063350
510 4 -0.000004 2.95110870 2.08601320 10.78800920
511 1 0.000052 2.46587036 5.50809977 8.56611791
512 3 -0.000104 2.71904760 5.24197677 7.16295028
513 4 -0.000004 2.93239935 4.68284103 9.18714348
514 4 -0.000004 1.34490638 5.39106645 8.66935650
515 4 0.000063 2.67476574 6.54874928 8.98516195
516 4 -0.000004 3.70640930 5.21387761 7.08593072
517 1 0.000052 9.34788342 13.03306310 13.86726850
518 3 -0.000104 10.10371460 11.84269300 13.96150500
519 4 -0.000004 9.36557230 13.41310310 14.90389070
520 4 -0.000004 8.27706310 12.92851360 13.47793760
521 4 0.000063 9.90850709 13.78652550 13.17790320
522 4 -0.000004 9.89255778 11.30237640 13.17869110
523 1 0.000052 5.33002222 1.80927144 6.94664736
524 3 -0.000104 5.88578743 1.79774709 5.56761793
525 4 -0.000004 5.27596747 0.78551447 7.31797102
526 4 -0.000004 4.38881628 2.29918276 6.94547381
527 4 0.000063 5.97340671 2.44932689 7.64350106
528 4 -0.000004 5.13441242 2.22364219 5.02490404
529 1 0.000052 7.08007592 4.83919011 10.96138590
530 3 -0.000104 7.99353377 3.78958963 11.35237930
531 4 -0.000004 6.82709186 5.45738966 11.79024300
532 4 -0.000004 6.25441993 4.33123214 10.49987770
533 4 0.000063 7.50258240 5.53746665 10.21241160
534 4 -0.000004 8.77802910 4.22798864 11.83488890
535 1 0.000052 18.06770510 12.29901650 17.79260530
536 3 -0.000104 16.89340950 11.47300990 17.73948520
537 4 -0.000004 17.86753160 13.12080560 18.47229020
538 4 -0.000004 18.33463180 12.79022130 16.83097250
539 4 0.000063 18.90879500 11.80422990 18.27882690
540 4 -0.000004 16.06881380 12.01937620 17.34648740
541 1 0.000052 14.33505110 14.46485270 5.33177996
542 3 -0.000104 13.27622060 15.25263650 5.95796808
543 4 -0.000004 13.95589140 13.62211590 4.66481474
544 4 -0.000004 15.05036770 14.05883740 6.07154381
545 4 0.000063 14.92101300 15.10922350 4.59200221
546 4 -0.000004 13.75712720 15.62134800 6.74049495
547 1 0.000052 17.69521660 8.56571805 15.73198690
548 3 -0.000104 16.83826840 9.03174323 16.78835360
549 4 -0.000004 18.43880060 9.29007329 15.44082860
550 4 -0.000004 17.11625280 8.33869687 14.82764460
551 4 0.000063 18.17281100 7.55745986 15.97359570
552 4 -0.000004 16.96516960 10.00997590 17.05594660
553 1 0.000052 14.01692540 7.12268622 16.02275490
554 3 -0.000104 14.29598270 8.29275824 16.93346100
555 4 -0.000004 13.05268960 7.32633042 15.60233320
556 4 -0.000004 13.92264500 6.17354793 16.55226360
557 4 0.000063 14.86370100 7.04564112 15.25568190
558 4 -0.000004 15.31005860 8.41440572 16.87908040
559 1 0.000052 9.14075085 16.97796440 15.35595970
560 3 -0.000104 9.25578040 16.57244220 16.71258890
561 4 -0.000004 9.00633797 16.10822010 14.73304340
562 4 -0.000004 10.12301570 17.42334700 15.04251050
563 4 0.000063 8.32020086 17.70829550 15.20535410
564 4 -0.000004 9.85222863 17.15493120 17.27351740
565 1 0.000052 17.73966350 4.69368306 11.65467550
566 3 -0.000104 18.25801990 5.75254965 10.83107920
567 4 -0.000004 16.93155680 4.85385038 12.34810990
568 4 -0.000004 18.60639580 4.28718622 12.25563300
569 4 0.000063 17.28907420 3.84437341 11.05240590
570 4 -0.000004 17.50702300 6.12302395 10.27240300
571 1 0.000052 0.67139416 8.64281406 8.67154077
572 3 -0.000104 1.61004205 8.79180840 9.84468173
573 4 -0.000004 19.62398240 8.03746718 9.01859886
574 4 -0.000004 1.30247395 8.21572258 7.88653821
575 4 0.000063 0.29236932 9.66514975 8.40962699
576 4 -0.000004 1.31914907 8.33894207 10.67667020
577 1 0.000052 15.07455460 9.84204036 1.05789601
578 3 -0.000104 16.18446910 10.53809640 0.47500324
579 4 -0.000004 15.09186210 9.97907937 2.10380544
580 4 -0.000004 15.11058620 8.74578438 0.70464627
581 4 0.000063 14.19093490 10.31128410 0.61561105
582 4 -0.000004 16.33013190 10.55770490 19.29627450
583 1 0.000052 0.47021269 6.52684757 1.11538300
584 3 -0.000104 1.48758886 6.98763496 0.15308786
585 4 -0.000004 19.29475050 7.01986880 0.99349360
586 4 -0.000004 0.68500351 6.47211049 2.20127296
587 4 0.000063 0.48846474 5.48172227 0.78084339
588 4 -0.000004 1.29612254 8.00637377 19.70040950
589 1 0.000052 7.57288284 13.07126470 9.20980568
590 3 -0.000104 7.68310401 11.77702900 8.53688383
591 4 -0.000004 8.49940799 13.29895350 9.74891061
592 4 -0.000004 6.64839994 13.13741070 9.84807452
593 4 0.000063 7.44937818 13.89706170 8.52063190
594 4 -0.000004 7.86773142 11.82595520 7.54323204
595 1 0.000052 2.00157220 10.66989200 16.45904950
596 3 -0.000104 2.83142640 10.60143920 17.61056790